"Materials Id","Formula","Spacegroup","Formation Energy (eV)","E Above Hull (eV)","Band Gap (eV)","Has Bandstructure","Volume","Nsites","Theoretical","Count","Density (gm/cc)","Crystal System",""
"mp-1209412","RbCoBr3","P63cm","-0.734","0.163","0.000","false","919.67","30","true","","4.161","hexagonal",""
"mp-1207084","AlNi3C","Pm3m","-0.182","0.165","0.000","true","53.206","5","true","","6.712","cubic",""
"mp-1206715","AlFe3B","Pm3m","-0.147","0.169","0.000","true","55.845","5","true","","6.105","cubic",""
"mp-1213826","CeRhO3","Pnma","-2.565","0.169","0.000","false","251.99","20","true","","7.671","orthorhombic",""
"mp-1211295","KTmBr3","Pnma","-1.498","0.183","0.000","false","663.893","20","true","","4.48","orthorhombic",""
"mp-1188372","UVSe3","Pnma","-0.787","0.186","0.000","true","443.966","20","false","","7.867","orthorhombic",""
"mp-1017626","LiCaF3","Pm3m","-3.632","0.187","6.526","false","53.21","5","true","","3.246","cubic",""
"mp-1207055","Mn3AlN","Pm3m","-0.449","0.189","0.000","true","53.567","5","true","","6.38","cubic",""
"mp-1206560","RbFeCl3","P63/mmc","-1.412","0.195","0.408","false","247.767","10","true","","3.32","hexagonal",""
"mp-1213177","CsTmI3","Pnma","-1.191","0.203","0.000","false","880.107","20","true","","5.151","orthorhombic",""
"mp-3547","MgSiO3","Pnma","-3.03","0.215","5.454","true","167.932","20","false","","3.971","orthorhombic",""
"mp-1079847","CsFeBr3","P63/mmc","-0.821","0.227","0.384","true","309.098","10","false","","4.604","hexagonal",""
"mp-1206988","NbBRh3","Pm3m","-0.285","0.231","0.000","true","69.557","5","true","","9.846","cubic",""
"mp-1207194","Cu3RhN","Pm3m","0.244","0.244","0.000","true","57.012","5","true","","8.958","cubic",""
"mp-1206138","Yb3PbC","Pm3m","-0.105","0.265","0.000","true","125.414","5","true","","9.776","cubic",""
"mp-1206910","CoAgF3","Pm3m","-1.701","0.268","0.000","true","66.183","5","true","","5.615","cubic",""
"mp-1106185","UCrSe3","Pnma","-0.598","0.268","0.000","true","440.191","20","false","","7.951","orthorhombic",""
"mp-1017446","HfCdO3","Pm3m","-2.69","0.28","0.000","true","68.826","5","true","","8.177","cubic",""
"mp-12958","BaSiO3","R3m","-3.119","0.295","3.059","true","184.404","15","false","","5.765","trigonal",""
"mp-1207081","CsTmH3","Pm3m","-0.253","0.319","0.000","true","88.228","5","true","","5.738","cubic",""
"mp-1206360","Yb3AlC","Pm3m","0.182","0.326","0.000","true","127.61","5","true","","7.262","cubic",""
"mp-1212207","InRhO3","Pnma","-1.227","0.333","0.039","false","243.509","20","true","","7.248","orthorhombic",""
"mp-556365","KCrF3","C2/m","-2.614","0.335","1.496","true","155.674","10","false","","3.159","monoclinic",""
"mp-1069346","PrVO3","Pm3m","-2.822","0.389","0.000","false","60.972","5","false","","6.532","cubic",""
"mp-1206130","CrFe3N","Pm3m","0.112","0.393","0.000","true","55.276","5","true","","7.016","cubic",""
"mp-18407","BaSiO3","P63/mmc","-3.005","0.409","2.133","true","350.222","30","false","","6.071","hexagonal",""
"mp-1206985","TiFe3N","Pm3m","-0.345","0.418","0.000","true","52.231","5","true","","7.293","cubic",""
"mp-1207852","VSnO3","Pnma","-1.8","0.431","0.000","false","239.543","20","true","","6.035","orthorhombic",""
"mp-998159","TlFeF3","Pm3m","-2.179","0.505","0.000","true","77.006","5","true","","6.841","cubic",""
"mp-1207091","Cu3RuN","Pm3m","0.524","0.524","0.000","true","58.004","5","true","","8.752","cubic",""
"mp-1190482","MnNCl3","Pnma","-0.239","0.642","0.000","true","437.269","20","false","","2.663","orthorhombic",""
"mp-1017555","CsBeF3","Pm3m","-2.763","0.663","5.385","true","65.711","5","true","","5.027","cubic",""
"mp-1106358","CaNCl3","Pnma","-1.019","0.67","1.483","true","535.505","20","false","","1.99","orthorhombic",""
"mp-1180782","KCrF3","Ibam","-2.94","0.682","0.166","true","154.485","10","false","","3.184","orthorhombic",""
"mp-1105795","CdNF3","Pnma","-0.898","0.697","0.000","true","330.11","20","false","","3.69","orthorhombic",""
"mp-1206341","NdSbO3","Pm3m","-2.085","0.769","0.000","true","78.489","5","true","","6.643","cubic",""
"mp-1207083","FeSnO3","Pm3m","-1.19","0.777","0.000","true","65.245","5","true","","5.664","cubic",""
"mp-1206044","CrCoBr3","P63/mmc","0.146","0.8","0.000","false","258.14","10","true","","4.511","hexagonal",""
"mp-1080799","CuNF3","Pm3m","-0.342","0.852","0.000","true","58.762","5","false","","3.802","cubic",""
"mp-1207179","SmSbO3","Pm3m","-2.027","0.86","0.000","true","77.801","5","true","","6.832","cubic",""
"mp-1206344","MnAgF3","Pm3m","-1.359","0.935","0.000","true","85.761","5","true","","4.256","cubic",""
"mp-1205732","VNCl3","P63/mmc","-0.396","0.957","0.000","false","273.325","10","true","","2.081","hexagonal",""
"mp-1209766","NiAgF3","Pm3m","-0.488","0.985","0.000","true","82.154","5","true","","4.519","cubic",""
"mvc-11152","YSbO3","Pm3m","-1.928","0.996","0.000","true","76.787","5","true","","5.594","cubic",""
"mp-1207389","ZnNF3","Pm3m","-0.665","1.003","0.000","true","63.815","5","true","","3.55","cubic",""
"mp-1207184","DySbO3","Pm3m","-1.905","1.039","0.000","true","76.659","5","true","","7.197","cubic",""
"mp-1078939","MnNF3","Pbam","-1.191","1.042","0.000","true","127.735","10","false","","3.274","orthorhombic",""
"mp-1206915","CoAgF3","Pm3m","-0.91","1.059","0.000","true","84.241","5","true","","4.411","cubic",""
"mp-1207180","HoSbO3","Pm3m","-1.876","1.077","0.000","true","76.565","5","true","","7.259","cubic",""
"mp-1205931","NiNCl3","P63/mmc","0.685","1.158","0.000","false","194.362","10","true","","3.06","hexagonal",""
"mp-1210575","MgAgF3","Pm3m","-1.609","1.2","0.000","false","85.153","5","true","","3.689","cubic",""
"mp-1080474","FeNCl3","P63/mmc","0.312","1.232","0.000","true","225.697","10","false","","2.593","hexagonal",""
"mp-1068795","NiNF3","Pm3m","-0.112","1.395","0.000","true","60.645","5","false","","3.551","cubic",""
"mp-1206753","AlFe3O","Pm3m","0.253","1.451","0.000","true","69.611","5","true","","5.022","cubic",""
"mp-1069129","MnNCl3","Pm3m","0.733","1.637","0.000","true","91.386","5","false","","3.185","cubic",""
"mp-1213745","CoNF3","Pm3m","-0.038","1.642","0.000","true","53.491","5","true","","4.034","cubic",""
"mp-1069166","MnNF3","Pm3m","0.093","2.327","0.000","true","63.191","5","false","","3.309","cubic",""